 # Fcc Au oriented X=[11-2], Y=[-110], Z=[111].
  
        4536  atoms
2 atom types
 
      0.000000000000      17.636326200000  xlo xhi
      0.000000000000      17.819090940000  ylo yhi
      0.000000000000       6.235382910000  zlo zhi
 
 
 
Atoms # atomic
 
         1    1        0.000000000000       0.000000000000       0.000000000000
         2    1        0.979795978384       0.000000000000       1.385640632810
         3    1        0.489897989192       0.000000000000       0.692820316405
         4    1        0.734846983788       0.424264002118       0.000000000000
         5    1        1.224744796616       0.424264002118       0.692820316405
         6    1        0.244948994596       0.424264002118       1.385640632810
         7    1        1.469693791212       0.000000000000       0.000000000000
         8    1        2.449489769596       0.000000000000       1.385640632810
         9    1        1.959591780404       0.000000000000       0.692820316405
        10    1        2.204540775000       0.424264002118       0.000000000000
        11    1        2.694438764192       0.424264002118       0.692820316405
        12    1        1.714642785808       0.424264002118       1.385640632810
        13    1        2.939387758788       0.000000000000       0.000000000000
        14    1        3.919183560808       0.000000000000       1.385640632810
        15    1        3.429285571616       0.000000000000       0.692820316405
        16    1        3.674234566212       0.424264002118       0.000000000000
        17    1        4.164132555404       0.424264002118       0.692820316405
        18    1        3.184336753384       0.424264002118       1.385640632810
        19    1        4.409081550000       0.000000000000       0.000000000000
        20    1        5.388877528384       0.000000000000       1.385640632810
        21    1        4.898979539192       0.000000000000       0.692820316405
        22    1        5.143928533788       0.424264002118       0.000000000000
        23    1        5.633826346616       0.424264002118       0.692820316405
        24    1        4.654030544596       0.424264002118       1.385640632810
        25    1        5.878775341212       0.000000000000       0.000000000000
        26    1        6.858571319596       0.000000000000       1.385640632810
        27    1        6.368673330404       0.000000000000       0.692820316405
        28    1        6.613622325000       0.424264002118       0.000000000000
        29    1        7.103520314192       0.424264002118       0.692820316405
        30    1        6.123724335808       0.424264002118       1.385640632810
        31    1        7.348469308788       0.000000000000       0.000000000000
        32    1        8.328265110808       0.000000000000       1.385640632810
        33    1        7.838367121616       0.000000000000       0.692820316405
        34    1        8.083316116212       0.424264002118       0.000000000000
        35    1        8.573214105404       0.424264002118       0.692820316405
        36    1        7.593418303384       0.424264002118       1.385640632810
        37    1        8.818163100000       0.000000000000       0.000000000000
        38    1        9.797959078384       0.000000000000       1.385640632810
        39    1        9.308061089192       0.000000000000       0.692820316405
        40    1        9.553010083788       0.424264002118       0.000000000000
        41    1       10.042907896616       0.424264002118       0.692820316405
        42    1        9.063112094596       0.424264002118       1.385640632810
        43    1       10.287856891212       0.000000000000       0.000000000000
        44    1       11.267652869596       0.000000000000       1.385640632810
        45    1       10.777754880404       0.000000000000       0.692820316405
        46    1       11.022703875000       0.424264002118       0.000000000000
        47    1       11.512601864192       0.424264002118       0.692820316405
        48    1       10.532805885808       0.424264002118       1.385640632810
        49    1       11.757550858788       0.000000000000       0.000000000000
        50    1       12.737346660808       0.000000000000       1.385640632810
        51    1       12.247448671616       0.000000000000       0.692820316405
        52    1       12.492397666212       0.424264002118       0.000000000000
        53    1       12.982295655404       0.424264002118       0.692820316405
        54    1       12.002499853384       0.424264002118       1.385640632810
        55    1       13.227244650000       0.000000000000       0.000000000000
        56    1       14.207040628384       0.000000000000       1.385640632810
        57    1       13.717142639192       0.000000000000       0.692820316405
        58    1       13.962091633788       0.424264002118       0.000000000000
        59    1       14.451989446616       0.424264002118       0.692820316405
        60    1       13.472193644596       0.424264002118       1.385640632810
        61    1       14.696938441212       0.000000000000       0.000000000000
        62    1       15.676734419596       0.000000000000       1.385640632810
        63    1       15.186836430404       0.000000000000       0.692820316405
        64    1       15.431785425000       0.424264002118       0.000000000000
        65    1       15.921683414192       0.424264002118       0.692820316405
        66    1       14.941887435808       0.424264002118       1.385640632810
        67    1       16.166632408788       0.000000000000       0.000000000000
        68    1       17.146428210808       0.000000000000       1.385640632810
        69    1       16.656530221616       0.000000000000       0.692820316405
        70    1       16.901479216212       0.424264002118       0.000000000000
        71    1       17.391377205404       0.424264002118       0.692820316405
        72    1       16.411581403384       0.424264002118       1.385640632810
        73    1        0.000000000000       0.848528182426       0.000000000000
        74    1        0.979795978384       0.848528182426       1.385640632810
        75    1        0.489897989192       0.848528182426       0.692820316405
        76    1        0.734846983788       1.272792184544       0.000000000000
        77    1        1.224744796616       1.272792184544       0.692820316405
        78    1        0.244948994596       1.272792184544       1.385640632810
        79    1        1.469693791212       0.848528182426       0.000000000000
        80    1        2.449489769596       0.848528182426       1.385640632810
        81    1        1.959591780404       0.848528182426       0.692820316405
        82    1        2.204540775000       1.272792184544       0.000000000000
        83    1        2.694438764192       1.272792184544       0.692820316405
        84    1        1.714642785808       1.272792184544       1.385640632810
        85    1        2.939387758788       0.848528182426       0.000000000000
        86    1        3.919183560808       0.848528182426       1.385640632810
        87    1        3.429285571616       0.848528182426       0.692820316405
        88    1        3.674234566212       1.272792184544       0.000000000000
        89    1        4.164132555404       1.272792184544       0.692820316405
        90    1        3.184336753384       1.272792184544       1.385640632810
        91    1        4.409081550000       0.848528182426       0.000000000000
        92    1        5.388877528384       0.848528182426       1.385640632810
        93    1        4.898979539192       0.848528182426       0.692820316405
        94    1        5.143928533788       1.272792184544       0.000000000000
        95    1        5.633826346616       1.272792184544       0.692820316405
        96    1        4.654030544596       1.272792184544       1.385640632810
        97    1        5.878775341212       0.848528182426       0.000000000000
        98    1        6.858571319596       0.848528182426       1.385640632810
        99    1        6.368673330404       0.848528182426       0.692820316405
       100    1        6.613622325000       1.272792184544       0.000000000000
       101    1        7.103520314192       1.272792184544       0.692820316405
       102    1        6.123724335808       1.272792184544       1.385640632810
       103    1        7.348469308788       0.848528182426       0.000000000000
       104    1        8.328265110808       0.848528182426       1.385640632810
       105    1        7.838367121616       0.848528182426       0.692820316405
       106    1        8.083316116212       1.272792184544       0.000000000000
       107    1        8.573214105404       1.272792184544       0.692820316405
       108    1        7.593418303384       1.272792184544       1.385640632810
       109    1        8.818163100000       0.848528182426       0.000000000000
       110    1        9.797959078384       0.848528182426       1.385640632810
       111    1        9.308061089192       0.848528182426       0.692820316405
       112    1        9.553010083788       1.272792184544       0.000000000000
       113    1       10.042907896616       1.272792184544       0.692820316405
       114    1        9.063112094596       1.272792184544       1.385640632810
       115    1       10.287856891212       0.848528182426       0.000000000000
       116    1       11.267652869596       0.848528182426       1.385640632810
       117    1       10.777754880404       0.848528182426       0.692820316405
       118    1       11.022703875000       1.272792184544       0.000000000000
       119    1       11.512601864192       1.272792184544       0.692820316405
       120    1       10.532805885808       1.272792184544       1.385640632810
       121    1       11.757550858788       0.848528182426       0.000000000000
       122    1       12.737346660808       0.848528182426       1.385640632810
       123    1       12.247448671616       0.848528182426       0.692820316405
       124    1       12.492397666212       1.272792184544       0.000000000000
       125    1       12.982295655404       1.272792184544       0.692820316405
       126    1       12.002499853384       1.272792184544       1.385640632810
       127    1       13.227244650000       0.848528182426       0.000000000000
       128    1       14.207040628384       0.848528182426       1.385640632810
       129    1       13.717142639192       0.848528182426       0.692820316405
       130    1       13.962091633788       1.272792184544       0.000000000000
       131    1       14.451989446616       1.272792184544       0.692820316405
       132    1       13.472193644596       1.272792184544       1.385640632810
       133    1       14.696938441212       0.848528182426       0.000000000000
       134    1       15.676734419596       0.848528182426       1.385640632810
       135    1       15.186836430404       0.848528182426       0.692820316405
       136    1       15.431785425000       1.272792184544       0.000000000000
       137    1       15.921683414192       1.272792184544       0.692820316405
       138    1       14.941887435808       1.272792184544       1.385640632810
       139    1       16.166632408788       0.848528182426       0.000000000000
       140    1       17.146428210808       0.848528182426       1.385640632810
       141    1       16.656530221616       0.848528182426       0.692820316405
       142    1       16.901479216212       1.272792184544       0.000000000000
       143    1       17.391377205404       1.272792184544       0.692820316405
       144    1       16.411581403384       1.272792184544       1.385640632810
       145    1        0.000000000000       1.697056364853       0.000000000000
       146    1        0.979795978384       1.697056364853       1.385640632810
       147    1        0.489897989192       1.697056364853       0.692820316405
       148    1        0.734846983788       2.121320366971       0.000000000000
       149    1        1.224744796616       2.121320366971       0.692820316405
       150    1        0.244948994596       2.121320366971       1.385640632810
       151    1        1.469693791212       1.697056364853       0.000000000000
       152    1        2.449489769596       1.697056364853       1.385640632810
       153    1        1.959591780404       1.697056364853       0.692820316405
       154    1        2.204540775000       2.121320366971       0.000000000000
       155    1        2.694438764192       2.121320366971       0.692820316405
       156    1        1.714642785808       2.121320366971       1.385640632810
       157    1        2.939387758788       1.697056364853       0.000000000000
       158    1        3.919183560808       1.697056364853       1.385640632810
       159    1        3.429285571616       1.697056364853       0.692820316405
       160    1        3.674234566212       2.121320366971       0.000000000000
       161    1        4.164132555404       2.121320366971       0.692820316405
       162    1        3.184336753384       2.121320366971       1.385640632810
       163    1        4.409081550000       1.697056364853       0.000000000000
       164    1        5.388877528384       1.697056364853       1.385640632810
       165    1        4.898979539192       1.697056364853       0.692820316405
       166    1        5.143928533788       2.121320366971       0.000000000000
       167    1        5.633826346616       2.121320366971       0.692820316405
       168    1        4.654030544596       2.121320366971       1.385640632810
       169    1        5.878775341212       1.697056364853       0.000000000000
       170    1        6.858571319596       1.697056364853       1.385640632810
       171    1        6.368673330404       1.697056364853       0.692820316405
       172    1        6.613622325000       2.121320366971       0.000000000000
       173    1        7.103520314192       2.121320366971       0.692820316405
       174    1        6.123724335808       2.121320366971       1.385640632810
       175    1        7.348469308788       1.697056364853       0.000000000000
       176    1        8.328265110808       1.697056364853       1.385640632810
       177    1        7.838367121616       1.697056364853       0.692820316405
       178    1        8.083316116212       2.121320366971       0.000000000000
       179    1        8.573214105404       2.121320366971       0.692820316405
       180    1        7.593418303384       2.121320366971       1.385640632810
       181    1        8.818163100000       1.697056364853       0.000000000000
       182    1        9.797959078384       1.697056364853       1.385640632810
       183    1        9.308061089192       1.697056364853       0.692820316405
       184    1        9.553010083788       2.121320366971       0.000000000000
       185    1       10.042907896616       2.121320366971       0.692820316405
       186    1        9.063112094596       2.121320366971       1.385640632810
       187    1       10.287856891212       1.697056364853       0.000000000000
       188    1       11.267652869596       1.697056364853       1.385640632810
       189    1       10.777754880404       1.697056364853       0.692820316405
       190    1       11.022703875000       2.121320366971       0.000000000000
       191    1       11.512601864192       2.121320366971       0.692820316405
       192    1       10.532805885808       2.121320366971       1.385640632810
       193    1       11.757550858788       1.697056364853       0.000000000000
       194    1       12.737346660808       1.697056364853       1.385640632810
       195    1       12.247448671616       1.697056364853       0.692820316405
       196    1       12.492397666212       2.121320366971       0.000000000000
       197    1       12.982295655404       2.121320366971       0.692820316405
       198    1       12.002499853384       2.121320366971       1.385640632810
       199    1       13.227244650000       1.697056364853       0.000000000000
       200    1       14.207040628384       1.697056364853       1.385640632810
       201    1       13.717142639192       1.697056364853       0.692820316405
       202    1       13.962091633788       2.121320366971       0.000000000000
       203    1       14.451989446616       2.121320366971       0.692820316405
       204    1       13.472193644596       2.121320366971       1.385640632810
       205    1       14.696938441212       1.697056364853       0.000000000000
       206    1       15.676734419596       1.697056364853       1.385640632810
       207    1       15.186836430404       1.697056364853       0.692820316405
       208    1       15.431785425000       2.121320366971       0.000000000000
       209    1       15.921683414192       2.121320366971       0.692820316405
       210    1       14.941887435808       2.121320366971       1.385640632810
       211    1       16.166632408788       1.697056364853       0.000000000000
       212    1       17.146428210808       1.697056364853       1.385640632810
       213    1       16.656530221616       1.697056364853       0.692820316405
       214    1       16.901479216212       2.121320366971       0.000000000000
       215    1       17.391377205404       2.121320366971       0.692820316405
       216    1       16.411581403384       2.121320366971       1.385640632810
       217    1        0.000000000000       2.545584369088       0.000000000000
       218    1        0.979795978384       2.545584369088       1.385640632810
       219    1        0.489897989192       2.545584369088       0.692820316405
       220    1        0.734846983788       2.969848549397       0.000000000000
       221    1        1.224744796616       2.969848549397       0.692820316405
       222    1        0.244948994596       2.969848549397       1.385640632810
       223    1        1.469693791212       2.545584369088       0.000000000000
       224    1        2.449489769596       2.545584369088       1.385640632810
       225    1        1.959591780404       2.545584369088       0.692820316405
       226    1        2.204540775000       2.969848549397       0.000000000000
       227    1        2.694438764192       2.969848549397       0.692820316405
       228    1        1.714642785808       2.969848549397       1.385640632810
       229    1        2.939387758788       2.545584369088       0.000000000000
       230    1        3.919183560808       2.545584369088       1.385640632810
       231    1        3.429285571616       2.545584369088       0.692820316405
       232    1        3.674234566212       2.969848549397       0.000000000000
       233    1        4.164132555404       2.969848549397       0.692820316405
       234    1        3.184336753384       2.969848549397       1.385640632810
       235    1        4.409081550000       2.545584369088       0.000000000000
       236    1        5.388877528384       2.545584369088       1.385640632810
       237    1        4.898979539192       2.545584369088       0.692820316405
       238    1        5.143928533788       2.969848549397       0.000000000000
       239    1        5.633826346616       2.969848549397       0.692820316405
       240    1        4.654030544596       2.969848549397       1.385640632810
       241    1        5.878775341212       2.545584369088       0.000000000000
       242    1        6.858571319596       2.545584369088       1.385640632810
       243    1        6.368673330404       2.545584369088       0.692820316405
       244    1        6.613622325000       2.969848549397       0.000000000000
       245    1        7.103520314192       2.969848549397       0.692820316405
       246    1        6.123724335808       2.969848549397       1.385640632810
       247    1        7.348469308788       2.545584369088       0.000000000000
       248    1        8.328265110808       2.545584369088       1.385640632810
       249    1        7.838367121616       2.545584369088       0.692820316405
       250    1        8.083316116212       2.969848549397       0.000000000000
       251    1        8.573214105404       2.969848549397       0.692820316405
       252    1        7.593418303384       2.969848549397       1.385640632810
       253    1        8.818163100000       2.545584369088       0.000000000000
       254    1        9.797959078384       2.545584369088       1.385640632810
       255    1        9.308061089192       2.545584369088       0.692820316405
       256    1        9.553010083788       2.969848549397       0.000000000000
       257    1       10.042907896616       2.969848549397       0.692820316405
       258    1        9.063112094596       2.969848549397       1.385640632810
       259    1       10.287856891212       2.545584369088       0.000000000000
       260    1       11.267652869596       2.545584369088       1.385640632810
       261    1       10.777754880404       2.545584369088       0.692820316405
       262    1       11.022703875000       2.969848549397       0.000000000000
       263    1       11.512601864192       2.969848549397       0.692820316405
       264    1       10.532805885808       2.969848549397       1.385640632810
       265    1       11.757550858788       2.545584369088       0.000000000000
       266    1       12.737346660808       2.545584369088       1.385640632810
       267    1       12.247448671616       2.545584369088       0.692820316405
       268    1       12.492397666212       2.969848549397       0.000000000000
       269    1       12.982295655404       2.969848549397       0.692820316405
       270    1       12.002499853384       2.969848549397       1.385640632810
       271    1       13.227244650000       2.545584369088       0.000000000000
       272    1       14.207040628384       2.545584369088       1.385640632810
       273    1       13.717142639192       2.545584369088       0.692820316405
       274    1       13.962091633788       2.969848549397       0.000000000000
       275    1       14.451989446616       2.969848549397       0.692820316405
       276    1       13.472193644596       2.969848549397       1.385640632810
       277    1       14.696938441212       2.545584369088       0.000000000000
       278    1       15.676734419596       2.545584369088       1.385640632810
       279    1       15.186836430404       2.545584369088       0.692820316405
       280    1       15.431785425000       2.969848549397       0.000000000000
       281    1       15.921683414192       2.969848549397       0.692820316405
       282    1       14.941887435808       2.969848549397       1.385640632810
       283    1       16.166632408788       2.545584369088       0.000000000000
       284    1       17.146428210808       2.545584369088       1.385640632810
       285    1       16.656530221616       2.545584369088       0.692820316405
       286    1       16.901479216212       2.969848549397       0.000000000000
       287    1       17.391377205404       2.969848549397       0.692820316405
       288    1       16.411581403384       2.969848549397       1.385640632810
       289    1        0.000000000000       3.394112551515       0.000000000000
       290    1        0.979795978384       3.394112551515       1.385640632810
       291    1        0.489897989192       3.394112551515       0.692820316405
       292    1        0.734846983788       3.818376553632       0.000000000000
       293    1        1.224744796616       3.818376553632       0.692820316405
       294    1        0.244948994596       3.818376553632       1.385640632810
       295    1        1.469693791212       3.394112551515       0.000000000000
       296    1        2.449489769596       3.394112551515       1.385640632810
       297    1        1.959591780404       3.394112551515       0.692820316405
       298    1        2.204540775000       3.818376553632       0.000000000000
       299    1        2.694438764192       3.818376553632       0.692820316405
       300    1        1.714642785808       3.818376553632       1.385640632810
       301    1        2.939387758788       3.394112551515       0.000000000000
       302    1        3.919183560808       3.394112551515       1.385640632810
       303    1        3.429285571616       3.394112551515       0.692820316405
       304    1        3.674234566212       3.818376553632       0.000000000000
       305    1        4.164132555404       3.818376553632       0.692820316405
       306    1        3.184336753384       3.818376553632       1.385640632810
       307    1        4.409081550000       3.394112551515       0.000000000000
       308    1        5.388877528384       3.394112551515       1.385640632810
       309    1        4.898979539192       3.394112551515       0.692820316405
       310    1        5.143928533788       3.818376553632       0.000000000000
       311    1        5.633826346616       3.818376553632       0.692820316405
       312    1        4.654030544596       3.818376553632       1.385640632810
       313    1        5.878775341212       3.394112551515       0.000000000000
       314    1        6.858571319596       3.394112551515       1.385640632810
       315    1        6.368673330404       3.394112551515       0.692820316405
       316    1        6.613622325000       3.818376553632       0.000000000000
       317    1        7.103520314192       3.818376553632       0.692820316405
       318    1        6.123724335808       3.818376553632       1.385640632810
       319    1        7.348469308788       3.394112551515       0.000000000000
       320    1        8.328265110808       3.394112551515       1.385640632810
       321    1        7.838367121616       3.394112551515       0.692820316405
       322    1        8.083316116212       3.818376553632       0.000000000000
       323    1        8.573214105404       3.818376553632       0.692820316405
       324    1        7.593418303384       3.818376553632       1.385640632810
       325    1        8.818163100000       3.394112551515       0.000000000000
       326    1        9.797959078384       3.394112551515       1.385640632810
       327    1        9.308061089192       3.394112551515       0.692820316405
       328    1        9.553010083788       3.818376553632       0.000000000000
       329    1       10.042907896616       3.818376553632       0.692820316405
       330    1        9.063112094596       3.818376553632       1.385640632810
       331    1       10.287856891212       3.394112551515       0.000000000000
       332    1       11.267652869596       3.394112551515       1.385640632810
       333    1       10.777754880404       3.394112551515       0.692820316405
       334    1       11.022703875000       3.818376553632       0.000000000000
       335    1       11.512601864192       3.818376553632       0.692820316405
       336    1       10.532805885808       3.818376553632       1.385640632810
       337    1       11.757550858788       3.394112551515       0.000000000000
       338    1       12.737346660808       3.394112551515       1.385640632810
       339    1       12.247448671616       3.394112551515       0.692820316405
       340    1       12.492397666212       3.818376553632       0.000000000000
       341    1       12.982295655404       3.818376553632       0.692820316405
       342    1       12.002499853384       3.818376553632       1.385640632810
       343    1       13.227244650000       3.394112551515       0.000000000000
       344    1       14.207040628384       3.394112551515       1.385640632810
       345    1       13.717142639192       3.394112551515       0.692820316405
       346    1       13.962091633788       3.818376553632       0.000000000000
       347    1       14.451989446616       3.818376553632       0.692820316405
       348    1       13.472193644596       3.818376553632       1.385640632810
       349    1       14.696938441212       3.394112551515       0.000000000000
       350    1       15.676734419596       3.394112551515       1.385640632810
       351    1       15.186836430404       3.394112551515       0.692820316405
       352    1       15.431785425000       3.818376553632       0.000000000000
       353    1       15.921683414192       3.818376553632       0.692820316405
       354    1       14.941887435808       3.818376553632       1.385640632810
       355    1       16.166632408788       3.394112551515       0.000000000000
       356    1       17.146428210808       3.394112551515       1.385640632810
       357    1       16.656530221616       3.394112551515       0.692820316405
       358    1       16.901479216212       3.818376553632       0.000000000000
       359    1       17.391377205404       3.818376553632       0.692820316405
       360    1       16.411581403384       3.818376553632       1.385640632810
       361    1        0.000000000000       4.242640733941       0.000000000000
       362    1        0.979795978384       4.242640733941       1.385640632810
       363    1        0.489897989192       4.242640733941       0.692820316405
       364    1        0.734846983788       4.666904736059       0.000000000000
       365    1        1.224744796616       4.666904736059       0.692820316405
       366    1        0.244948994596       4.666904736059       1.385640632810
       367    1        1.469693791212       4.242640733941       0.000000000000
       368    1        2.449489769596       4.242640733941       1.385640632810
       369    1        1.959591780404       4.242640733941       0.692820316405
       370    1        2.204540775000       4.666904736059       0.000000000000
       371    1        2.694438764192       4.666904736059       0.692820316405